[Molden Format]
[Geometries] (XYZ)
6

C        0.000000       0.665458      -0.000001
H       -0.923562       1.239641       0.000003
H        0.923562       1.239641       0.000003
C        0.000000      -0.665458      -0.000001
H        0.923562      -1.239641       0.000003
H       -0.923562      -1.239641       0.000003
6

C       -0.010016       0.921082      -0.085939
H       -1.226573       1.530937      -0.057623
H        1.042456       1.565478      -0.039064
C        0.124177      -0.618172       0.182234
H        0.932696      -1.641462       0.450316
H       -1.169441      -0.784862      -0.136448
[GEOCONV]
energy
0.0
-1452.33964436
max-force
0.0
1.45848637372
max-step
204.079238172
161.119663611
