[Molden Format]
[Geometries] (XYZ)
6

C        0.000000       0.665458      -0.000001
H       -0.923562       1.239641       0.000003
H        0.923562       1.239641       0.000003
C        0.000000      -0.665458      -0.000001
H        0.923562      -1.239641       0.000003
H       -0.923562      -1.239641       0.000003
6

C        0.001101       0.896107      -0.104265
H       -1.254501       1.517240      -0.052629
H        1.061723       1.613945      -0.066681
C        0.169412      -0.696862       0.153030
H        0.913662      -1.790149       0.411295
H       -1.214254      -0.750460      -0.163827
[GEOCONV]
energy
0.0
-1650.27262913
max-force
0.0
1.28675272181
max-step
204.079238172
150.314369479
