[Molden Format]
[Geometries] (XYZ)
6

C        0.000000       0.665458      -0.000001
H       -0.923562       1.239641       0.000003
H        0.923562       1.239641       0.000003
C        0.000000      -0.665458      -0.000001
H        0.923562      -1.239641       0.000003
H       -0.923562      -1.239641       0.000003
6

C       -0.031795       0.709949      -0.097963
H       -0.935764       1.372589       0.054628
H        0.958759       1.287905      -0.127325
C        0.004136      -0.693165       0.091586
H        0.962312      -1.291129       0.083899
H       -0.924195      -1.298909       0.043799
[GEOCONV]
energy
0.0
-481.601194885
max-force
0.0
2.62399460052
max-step
279.560600236
273.179066292
