[Molden Format]
[Geometries] (XYZ)
6

C        0.000000       0.665458      -0.000001
H       -0.923562       1.239641       0.000003
H        0.923562       1.239641       0.000003
C        0.000000      -0.665458      -0.000001
H        0.923562      -1.239641       0.000003
H       -0.923562      -1.239641       0.000003
6

C        0.002216       0.898715      -0.112203
H       -1.300686       1.530589      -0.062642
H        1.087967       1.661982      -0.131513
C        0.191020      -0.771371       0.191591
H        0.950763      -1.898961       0.480916
H       -1.229147      -0.739170      -0.138129
[GEOCONV]
energy
0.0
-1858.97516847
max-force
0.0
1.05937294268
max-step
204.079238172
144.046455103
