  16
Step 35
  C     -1.06001665     -1.51714564      0.05288674
  C     -1.82955412     -0.59408623     -0.53968755
  C     -2.01260392      0.79370866     -0.08977969
  C     -1.09740592      1.54095108      0.54110413
  C      3.01841440     -0.33274049      0.53420511
  C      2.48267950      0.16990394     -0.57660955
  H     -2.40063347     -0.88235561     -1.42321617
  H     -0.51365172     -1.30383154      0.96828855
  H     -0.96688964     -2.52122005     -0.35117707
  H      3.89171154      0.11254122      1.00536203
  H      2.60849064     -1.21591676      1.01902222
  H      1.60806045     -0.27640639     -1.04373753
  H      2.89526366      1.05096138     -1.06301386
  H     -1.32088987      2.55628492      0.85667305
  H     -0.09454533      1.17390089      0.74481476
  H     -2.98142355      1.23828062     -0.32070817
