15
Step 26
 Ni     -2.06357454      0.16191327     -0.54721842
  H     -1.19628275     -1.03466610     -1.02834573
  H     -2.99655179     -0.88651934      0.12045667
  N     -0.74356988      1.44319381     -1.13700352
  N     -3.06227907      1.63723635      0.20006959
  C     -2.25773111      2.61744770      0.29814054
  C     -0.93028175      2.50234953     -0.45769224
  C     -2.60806727      3.93974612      1.02329616
  H     -1.89733733      4.17718772      1.83570456
  H     -2.60427565      4.81059228      0.34158433
  H     -3.61262090      3.83877301      1.45521111
  C      0.06300150      3.69037857     -0.44031031
  H     -0.38081125      4.62321540     -0.83510175
  H      0.41910033      3.92302807      0.57988142
  H      0.92859692      3.42348372     -1.0608123415
