23
Step 26
 C                 -2.19298587    2.58897887    0.41582866
 C                 -0.84347240    2.46238740   -0.30862669
 C                 -2.59536981    3.81399906    1.25785757
 H                 -2.29354888    3.66352540    2.27331894
 H                 -2.11527098    4.68750979    0.86877645
 H                 -3.65686802    3.94211239    1.21652338
 C                  0.24907449    3.54698212   -0.26868191
 H                  0.09990379    4.23339872   -1.07582524
 H                  0.19549643    4.07312149    0.66148300
 H                  1.21093051    3.08800820   -0.36394964
 N                 -0.72661683    1.35436756   -0.96351564
 N                 -2.95857124    1.56351146    0.23524578
 Ni                -2.13649558    0.18504152   -0.68909013
 H                 -1.48626759   -0.89706833   -1.40235153
 H                 -3.25627202   -0.69828821   -0.42769140
 C                  0.41260970    1.05271653   -1.84219052
 H                  0.79327507    1.96233995   -2.25761693
 H                  1.18159227    0.56988230   -1.27611904
 H                  0.09219469    0.40635821   -2.63241527
 C                 -4.34666001    1.49844183    0.71469913
 H                 -4.44595916    2.08965453    1.60098758
 H                 -5.00316976    1.87588450   -0.04123207
 H                 -4.60122866    0.48242284    0.93333173
