[Molden Format]
[Geometries] (XYZ)
6

C        0.000000       0.665458      -0.000001
H       -0.923562       1.239641       0.000003
H        0.923562       1.239641       0.000003
C        0.000000      -0.665458      -0.000001
H        0.923562      -1.239641       0.000003
H       -0.923562      -1.239641       0.000003
6

C       -0.065628       0.678057      -0.108496
H       -0.983118       1.388697       0.110111
H        0.948148       1.340263      -0.168523
C       -0.002101      -0.817137       0.036940
H        0.991554      -1.424268      -0.011021
H       -0.991118      -1.420580       0.003263
[GEOCONV]
energy
0.0
-908.924968682
max-force
0.0
2.13439338399
max-step
279.560600236
271.928896074
