[Molden Format]
[Geometries] (XYZ)
6

C        0.000000       0.665458      -0.000001
H       -0.923562       1.239641       0.000003
H        0.923562       1.239641       0.000003
C        0.000000      -0.665458      -0.000001
H        0.923562      -1.239641       0.000003
H       -0.923562      -1.239641       0.000003
6

C       -0.086136       0.867578      -0.074763
H       -1.247528       1.450832      -0.044558
H        0.964273       1.484131      -0.031024
C        0.026680      -0.614657       0.133599
H        0.879708      -1.551494       0.349832
H       -1.176159      -0.856379      -0.171537
[GEOCONV]
energy
0.0
-1183.16982392
max-force
0.0
1.68990662314
max-step
204.079238172
170.545163145
