[Molden Format]
[Geometries] (XYZ)
6

C        0.000000       0.665458      -0.000001
H       -0.923562       1.239641       0.000003
H        0.923562       1.239641       0.000003
C        0.000000      -0.665458      -0.000001
H        0.923562      -1.239641       0.000003
H       -0.923562      -1.239641       0.000003
6

C       -0.080565       0.779090      -0.085906
H       -1.150797       1.405876      -0.032992
H        0.935470       1.363652      -0.051426
C       -0.023514      -0.631861       0.113441
H        0.856730      -1.500945       0.307393
H       -1.147617      -0.962006      -0.129791
[GEOCONV]
energy
0.0
-834.528044993
max-force
0.0
1.98473431244
max-step
204.079238172
180.777254176
